  156
 i =    20003, time =    10001.500, E =      -632.1244706299
C      1.24559150    1.95168408    1.07319894
C      1.02991411    1.12742199   -1.19767187
C      2.61981455    2.96356041   -0.42422735
C      2.98776786    3.41136425    0.84250698
C      2.07194142    2.80292892    3.15855874
C      1.43165416   -0.34646210   -0.85919992
H      0.48267143    1.31806552    1.51606933
H      1.51401470    1.33505404   -2.14067189
H     -0.01414612    1.24274085   -1.35737952
H      2.90824977    3.14366630   -1.41864625
H      3.81461825    4.03742746    1.07861527
H      0.97507393    2.45581610    3.41563566
H      2.86375084    2.09953397    3.49049311
H      2.44014210    3.79356606    3.60436184
H      0.98726383   -0.52094566    0.13389156
H      2.53811082   -0.39217378   -0.90079323
H      0.93781569   -0.93684280   -1.71416802
N      1.52253171    2.13360559   -0.20108482
N      2.15628547    2.77331341    1.70032646
C      8.33605272    1.50253864    8.92095053
C      9.66734868    3.33119317    9.83668378
C      7.15820981    3.02053710   10.01143441
C      6.26054279    2.15572161    9.51022610
C      6.39250692    0.15358506    7.92902342
C     10.07661924    3.53301927   11.28098268
H      9.17084722    0.91040655    8.50348381
H      9.55181903    4.25058421    9.21456130
H     10.42065690    2.65956385    9.30965300
H      6.99574333    3.89867974   10.68009035
H      5.13154533    2.27528211    9.30399261
H      5.70103399    0.70739849    7.21975532
H      7.22663913   -0.32839181    7.34231947
H      6.00541732   -0.50248817    8.66584786
H      9.54459112    4.36304674   11.74360486
H     11.20920258    3.75948205   11.33479262
H      9.85880739    2.71406338   11.89807100
N      8.43065916    2.59207129    9.68203459
N      7.02752921    1.23344199    8.71025328
C      0.97469818    6.27678024    0.20595819
C     -0.77212523    6.64094027    1.92821915
C      1.21597140    8.09137452    1.55647599
C      2.23387922    8.05852611    0.60398329
C      3.19098336    6.36798752   -1.09637827
C     -0.43644457    5.29334599    2.67026257
H      0.56040931    5.37589177   -0.16037018
H     -0.97860796    7.30542374    2.77065079
H     -1.62287355    6.51094280    1.32774353
H      1.10772403    8.79900426    2.32587401
H      3.10918066    8.76708168    0.47677613
H      2.79936270    5.63112941   -1.72959903
H      3.44411424    7.17732332   -1.78406443
H      4.02966839    6.11911904   -0.48150632
H     -1.21554864    4.82601054    3.17283223
H      0.42786842    5.40879898    3.30919485
H     -0.13093007    4.47530299    2.00559310
N      0.38414413    7.00419120    1.16382609
N      2.09088832    6.94129247   -0.17384501
C     10.69617215    4.48990808    6.49752170
C      8.71547093    5.97751398    5.51052921
C      8.71649976    3.40168277    6.01531671
C      9.71391802    2.49835511    6.42599709
C     12.18688863    2.48822085    6.95902627
C      9.52486156    7.27097685    5.77468619
H     11.54368946    5.20866613    6.64666150
H      8.63514535    5.82329989    4.38132419
H      7.68385277    6.07307050    5.76045779
H      7.68644841    3.26927846    5.84370905
H      9.72873221    1.43214950    6.49597804
H     12.91049117    2.84948283    6.27975278
H     12.58765099    2.74208356    8.00454547
H     12.03801748    1.45429254    6.78326828
H     10.43346700    7.33465823    5.07473139
H      8.89445545    8.13356045    5.54228174
H      9.81907442    7.36428517    6.86061855
N      9.33401340    4.70258029    6.06225461
N     10.87900701    3.21518360    6.69630447
C      4.35536531    9.19581325    6.04668706
C      5.46519494    7.73494501    4.32531079
C      4.40677042   10.02477186    3.97594962
C      3.71067121   10.87890103    4.80199966
C      3.08382301   10.86566220    7.39076484
C      4.37677647    6.68650813    3.76464340
H      4.44496365    8.46770645    6.85238406
H      6.22263629    8.04687641    3.58360897
H      5.94367143    7.23388805    5.18794485
H      4.47213205    9.90016564    2.84936174
H      3.22161064   11.82139529    4.50563872
H      3.62604904   10.43716480    8.22440755
H      2.03586382   10.61173658    7.35713016
H      3.26360953   11.95000091    7.28623196
H      3.82715927    7.07362244    2.99411534
H      3.68071029    6.44702071    4.57910609
H      4.93050645    5.88048594    3.33053490
N      4.79735550    8.98543556    4.78291668
N      3.68180211   10.37115698    6.08375530
C      7.58457512    8.26527166   11.18285195
C      7.04929981    8.10692227    8.67276953
C      9.00643819    9.40152233    9.83631819
C      9.26012485    9.73446660   11.09107197
C      8.41214477    9.31666968   13.40673018
C      7.03028009    6.60651315    8.44452480
H      6.90997561    7.45763247   11.58112083
H      6.00692080    8.52583708    8.90420052
H      7.55998394    8.67828792    7.78666989
H      9.27697267    9.78700659    8.85058956
H      9.93505671   10.52308632   11.46085881
H      8.07627020    8.42964101   13.92061731
H      7.61007404   10.16475787   13.49357441
H      9.36230692    9.75748503   13.66478384
H      6.70768407    6.15225123    9.41194817
H      8.05560199    6.15465577    8.16223617
H      6.31111616    6.39381207    7.64035893
N      7.88270335    8.47690589    9.86748522
N      8.44819094    9.06409812   11.95572289
C      4.96607078   10.46648713    0.19863090
C      4.96005116   11.93987565    0.74719912
H      4.88733778   12.09391134    1.87525343
H      5.89708905   12.42070806    0.58219423
H      4.27275248   12.46399861    0.03103820
O      5.22446327   10.41645511   -1.08156503
O      4.93854622    9.49219619    1.01764599
C      3.99417797    3.21990387    7.22375698
C      4.62909454    4.55664156    6.76499980
H      5.03402950    4.48582255    5.78626306
H      5.46871039    4.81726542    7.45277021
H      3.89534762    5.37730938    6.83426801
O      3.68337571    3.13840246    8.45537016
O      3.99830612    2.31694084    6.34180435
C      6.64948344    4.88478273    1.43119585
C      6.72449425    3.89572843    2.66216413
H      5.85698093    3.29578615    2.63130127
H      7.67221794    3.36310914    2.42532375
H      6.90320364    4.37616591    3.69660046
O      5.77451484    4.69996515    0.47954869
O      7.49285485    5.84515929    1.36919821
C     10.09009427   10.52606182    6.74400493
C     10.97062355   10.11851448    5.54802960
H     12.01537416   10.51703951    5.67317065
H     11.10584813    9.01391512    5.53230548
H     10.58422853   10.55706112    4.56821395
O      8.86930016   10.27238827    6.69466327
O     10.74357407   11.03151600    7.70555388
C     10.07172361    0.96317117    2.91665251
C      8.62782121    0.63221970    3.42142397
H      7.87421809    0.42563869    2.63792310
H      8.78348379   -0.25686177    4.01836290
H      8.36738116    1.54452477    4.01256534
O     10.49497091    0.38502129    1.80699145
O     10.74299317    1.77211337    3.59528562
C      1.58152553    7.21043038    8.10624093
C      0.54782656    8.13970001    8.80706095
H      0.71729204    8.16163350    9.91120075
H     -0.43036092    7.71362123    8.73034309
H      0.47964261    9.13782297    8.44636657
O      1.27464600    5.99393136    7.87329759
O      2.76275898    7.65584426    7.75006303
